version 2
run General-0-20170421-09:05:47-8207
attr D pcp_i
attr F spr
attr R pcp_i
attr a 1
attr configname General
attr datetime 20170421-09:05:47
attr experiment General
attr inifile omnetpp.ini
attr iterationvars "$net=tree, $rep=0, $a=1, $F=spr, $ttl=1000, $D=pcp_i, $R=pcp_i, $window=60, $variance=0.05, $mytime=1800"
attr iterationvars2 "$net=tree, $rep=0, $a=1, $F=spr, $ttl=1000, $D=pcp_i, $R=pcp_i, $window=60, $variance=0.05, $mytime=1800, $repetition=0"
attr measurement "$net=tree, $rep=0, $a=1, $F=spr, $ttl=1000, $D=pcp_i, $R=pcp_i, $window=60, $variance=0.05, $mytime=1800"
attr mytime 1800
attr net tree
attr network networks.${net=tree}_network
attr processid 8207
attr rep 0
attr repetition 0
attr replication #0
attr resultdir results
attr runnumber 0
attr seedset 0
attr ttl 1000
attr variance 0.05
attr window 60

vector 0  tree_network.node[0].content_store  hit_node[0]  ETV
0	201	1	0.5
0	201	2	0.5
0	201	3	0.5
0	201	4	0
0	201	5	0.5
0	201	6	-nan
0	201	7	-nan
0	201	8	-nan
0	201	9	0
vector 1  tree_network.node[1].content_store  hit_node[1]  ETV
1	201	1	-nan
1	201	2	0
1	201	3	0
1	201	4	0
1	201	5	-nan
1	201	6	-nan
1	201	7	-nan
1	201	8	-nan
1	201	9	-nan
vector 2  tree_network.node[2].content_store  hit_node[2]  ETV
2	201	1	0.5
2	201	2	0
2	201	3	0
2	201	4	-nan
2	201	5	0
2	201	6	-nan
2	201	7	-nan
2	201	8	-nan
2	201	9	0
vector 3  tree_network.node[3].content_store  hit_node[3]  ETV
3	201	1	-nan
3	201	2	-nan
3	201	3	0
3	201	4	0
3	201	5	-nan
3	201	6	-nan
3	201	7	-nan
3	201	8	-nan
3	201	9	-nan
vector 4  tree_network.node[4].content_store  hit_node[4]  ETV
4	201	1	-nan
4	201	2	0
4	201	3	-nan
4	201	4	-nan
4	201	5	-nan
4	201	6	-nan
4	201	7	-nan
4	201	8	-nan
4	201	9	-nan
vector 5  tree_network.node[5].content_store  hit_node[5]  ETV
5	201	1	0
5	201	2	0
5	201	3	-nan
5	201	4	-nan
5	201	5	0
5	201	6	-nan
5	201	7	-nan
5	201	8	-nan
5	201	9	0
vector 6  tree_network.node[6].content_store  hit_node[6]  ETV
6	201	1	0.5
6	201	2	-nan
6	201	3	0
6	201	4	-nan
6	201	5	-nan
6	201	6	-nan
6	201	7	-nan
6	201	8	-nan
6	201	9	-nan
vector 7  tree_network.node[7].content_store  hit_node[7]  ETV
7	201	1	-nan
7	201	2	-nan
7	201	3	0
7	201	4	0
7	201	5	-nan
7	201	6	-nan
7	201	7	-nan
7	201	8	-nan
7	201	9	-nan
vector 8  tree_network.node[8].content_store  hit_node[8]  ETV
8	201	1	-nan
8	201	2	-nan
8	201	3	-nan
8	201	4	-nan
8	201	5	-nan
8	201	6	-nan
8	201	7	-nan
8	201	8	-nan
8	201	9	-nan
vector 9  tree_network.node[9].content_store  hit_node[9]  ETV
9	201	1	-nan
9	201	2	0
9	201	3	-nan
9	201	4	-nan
9	201	5	-nan
9	201	6	-nan
9	201	7	-nan
9	201	8	-nan
9	201	9	-nan
vector 10  tree_network.node[10].content_store  hit_node[10]  ETV
10	201	1	-nan
10	201	2	-nan
10	201	3	-nan
10	201	4	-nan
10	201	5	-nan
10	201	6	-nan
10	201	7	-nan
10	201	8	-nan
10	201	9	-nan
vector 11  tree_network.node[11].content_store  hit_node[11]  ETV
11	201	1	0
11	201	2	-nan
11	201	3	-nan
11	201	4	-nan
11	201	5	0
11	201	6	-nan
11	201	7	-nan
11	201	8	-nan
11	201	9	-nan
vector 12  tree_network.node[12].content_store  hit_node[12]  ETV
12	201	1	0
12	201	2	0
12	201	3	-nan
12	201	4	-nan
12	201	5	-nan
12	201	6	-nan
12	201	7	-nan
12	201	8	-nan
12	201	9	0
vector 13  tree_network.node[13].content_store  hit_node[13]  ETV
13	201	1	0
13	201	2	-nan
13	201	3	0
13	201	4	-nan
13	201	5	-nan
13	201	6	-nan
13	201	7	-nan
13	201	8	-nan
13	201	9	-nan
vector 14  tree_network.node[14].content_store  hit_node[14]  ETV
14	201	1	-nan
14	201	2	-nan
14	201	3	-nan
14	201	4	-nan
14	201	5	-nan
14	201	6	-nan
14	201	7	-nan
14	201	8	-nan
14	201	9	-nan
vector 15  tree_network.client[7]  hdistance[7]  ETV
15	201	1	0
15	201	2	0
15	201	3	3
15	201	4	4
15	201	5	0
15	201	6	0
15	201	7	0
15	201	8	0
15	201	9	0
vector 16  tree_network.client[8]  hdistance[8]  ETV
16	201	1	0
16	201	2	0
16	201	3	0
16	201	4	0
16	201	5	0
16	201	6	0
16	201	7	0
16	201	8	0
16	201	9	0
vector 17  tree_network.client[9]  hdistance[9]  ETV
17	201	1	0
17	201	2	4
17	201	3	0
17	201	4	0
17	201	5	0
17	201	6	0
17	201	7	0
17	201	8	0
17	201	9	0
vector 18  tree_network.client[10]  hdistance[10]  ETV
18	201	1	0
18	201	2	0
18	201	3	0
18	201	4	0
18	201	5	0
18	201	6	0
18	201	7	0
18	201	8	0
18	201	9	0
vector 19  tree_network.client[11]  hdistance[11]  ETV
19	201	1	3
19	201	2	0
19	201	3	0
19	201	4	0
19	201	5	3.5
19	201	6	0
19	201	7	0
19	201	8	0
19	201	9	0
vector 20  tree_network.client[12]  hdistance[12]  ETV
20	201	1	3
20	201	2	3
20	201	3	0
20	201	4	0
20	201	5	0
20	201	6	0
20	201	7	0
20	201	8	0
20	201	9	4
vector 21  tree_network.client[13]  hdistance[13]  ETV
21	201	1	1.5
21	201	2	0
21	201	3	4
21	201	4	0
21	201	5	0
21	201	6	0
21	201	7	0
21	201	8	0
21	201	9	0
vector 22  tree_network.client[14]  hdistance[14]  ETV
22	201	1	0
22	201	2	0
22	201	3	0
22	201	4	0
22	201	5	0
22	201	6	0
22	201	7	0
22	201	8	0
22	201	9	0
