version 2
run General-0-20170420-21:40:51-19907
attr D pcp_e
attr F spr
attr R pcp_e
attr a 1
attr configname General
attr datetime 20170420-21:40:51
attr experiment General
attr inifile omnetpp.ini
attr iterationvars "$net=tree, $rep=0, $a=1, $F=spr, $ttl=1000, $D=pcp_e, $R=pcp_e, $window=60, $variance=0.05, $mytime=1800"
attr iterationvars2 "$net=tree, $rep=0, $a=1, $F=spr, $ttl=1000, $D=pcp_e, $R=pcp_e, $window=60, $variance=0.05, $mytime=1800, $repetition=0"
attr measurement "$net=tree, $rep=0, $a=1, $F=spr, $ttl=1000, $D=pcp_e, $R=pcp_e, $window=60, $variance=0.05, $mytime=1800"
attr mytime 1800
attr net tree
attr network networks.${net=tree}_network
attr processid 19907
attr rep 0
attr repetition 0
attr replication #0
attr resultdir results
attr runnumber 0
attr seedset 0
attr ttl 1000
attr variance 0.05
attr window 60

vector 0  tree_network.node[0].content_store  hit_node[0]  ETV
0	26960	1	0.25
0	26960	2	-nan
0	26960	3	0.19047619047619
0	26960	4	0.26086956521739
0	26960	5	0.25
0	26960	6	0.13333333333333
0	26960	7	0.25
0	26960	8	0.21052631578947
0	26960	9	0.27272727272727
vector 1  tree_network.node[1].content_store  hit_node[1]  ETV
1	26960	1	-nan
1	26960	2	-nan
1	26960	3	0.25
1	26960	4	0.26666666666667
1	26960	5	0.21428571428571
1	26960	6	0.28571428571429
1	26960	7	0.25
1	26960	8	0.33333333333333
1	26960	9	0.29411764705882
vector 2  tree_network.node[2].content_store  hit_node[2]  ETV
2	26960	1	0.2
2	26960	2	-nan
2	26960	3	0.11764705882353
2	26960	4	0.25
2	26960	5	0.27777777777778
2	26960	6	0.16666666666667
2	26960	7	0.28571428571429
2	26960	8	0.21428571428571
2	26960	9	0.33333333333333
vector 3  tree_network.node[3].content_store  hit_node[3]  ETV
3	26960	1	-nan
3	26960	2	-nan
3	26960	3	0.33333333333333
3	26960	4	0.16666666666667
3	26960	5	0.5
3	26960	6	0.44444444444444
3	26960	7	0.375
3	26960	8	0.41666666666667
3	26960	9	0.46153846153846
vector 4  tree_network.node[4].content_store  hit_node[4]  ETV
4	26960	1	-nan
4	26960	2	-nan
4	26960	3	0.2
4	26960	4	0.33333333333333
4	26960	5	0.25
4	26960	6	0.66666666666667
4	26960	7	0.57142857142857
4	26960	8	0.375
4	26960	9	0.23076923076923
vector 5  tree_network.node[5].content_store  hit_node[5]  ETV
5	26960	1	-nan
5	26960	2	-nan
5	26960	3	0
5	26960	4	0.33333333333333
5	26960	5	0.2
5	26960	6	0.11111111111111
5	26960	7	0.5
5	26960	8	0.16666666666667
5	26960	9	0.3125
vector 6  tree_network.node[6].content_store  hit_node[6]  ETV
6	26960	1	0.16666666666667
6	26960	2	-nan
6	26960	3	0.083333333333333
6	26960	4	0.33333333333333
6	26960	5	0.33333333333333
6	26960	6	0.2
6	26960	7	0.083333333333333
6	26960	8	0.5
6	26960	9	0.42857142857143
vector 7  tree_network.node[7].content_store  hit_node[7]  ETV
7	26960	1	1
7	26960	2	1
7	26960	3	0.96774193548387
7	26960	4	0.91304347826087
7	26960	5	0.61538461538462
7	26960	6	0.72727272727273
7	26960	7	0.90909090909091
7	26960	8	0.33333333333333
7	26960	9	0.4
vector 8  tree_network.node[8].content_store  hit_node[8]  ETV
8	26960	1	1
8	26960	2	1
8	26960	3	0.8
8	26960	4	0.75
8	26960	5	0.44444444444444
8	26960	6	0.53846153846154
8	26960	7	0.3
8	26960	8	0
8	26960	9	0.69230769230769
vector 9  tree_network.node[9].content_store  hit_node[9]  ETV
9	26960	1	1
9	26960	2	1
9	26960	3	0.80769230769231
9	26960	4	0.52941176470588
9	26960	5	0.3
9	26960	6	0.9375
9	26960	7	0.72727272727273
9	26960	8	0.8
9	26960	9	0
vector 10  tree_network.node[10].content_store  hit_node[10]  ETV
10	26960	1	1
10	26960	2	1
10	26960	3	1
10	26960	4	0.70833333333333
10	26960	5	0.6875
10	26960	6	0.28571428571429
10	26960	7	0.63636363636364
10	26960	8	0.53846153846154
10	26960	9	0.45454545454545
vector 11  tree_network.node[11].content_store  hit_node[11]  ETV
11	26960	1	1
11	26960	2	1
11	26960	3	1
11	26960	4	0.75
11	26960	5	0.55
11	26960	6	0.57142857142857
11	26960	7	0.9375
11	26960	8	0.16666666666667
11	26960	9	0
vector 12  tree_network.node[12].content_store  hit_node[12]  ETV
12	26960	1	1
12	26960	2	1
12	26960	3	0.7
12	26960	4	0.7
12	26960	5	0.66666666666667
12	26960	6	0.76923076923077
12	26960	7	0.64285714285714
12	26960	8	0
12	26960	9	0
vector 13  tree_network.node[13].content_store  hit_node[13]  ETV
13	26960	1	1
13	26960	2	1
13	26960	3	0.52
13	26960	4	0.73333333333333
13	26960	5	0.54545454545455
13	26960	6	0.94117647058824
13	26960	7	0.16666666666667
13	26960	8	0.5
13	26960	9	0.66666666666667
vector 14  tree_network.node[14].content_store  hit_node[14]  ETV
14	26960	1	0.92
14	26960	2	1
14	26960	3	1
14	26960	4	0.52941176470588
14	26960	5	0.71428571428571
14	26960	6	0.71428571428571
14	26960	7	0.5
14	26960	8	0.42857142857143
14	26960	9	0.5
vector 15  tree_network.client[7]  hdistance[7]  ETV
15	26960	1	0
15	26960	2	0
15	26960	3	0.032258064516129
15	26960	4	0.34782608695652
15	26960	5	0.92307692307692
15	26960	6	0.54545454545455
15	26960	7	0.090909090909091
15	26960	8	1.4444444444444
15	26960	9	1.6
vector 16  tree_network.client[8]  hdistance[8]  ETV
16	26960	1	0
16	26960	2	0
16	26960	3	0.56
16	26960	4	0.625
16	26960	5	0.88888888888889
16	26960	6	1.1538461538462
16	26960	7	1.9
16	26960	8	2.5
16	26960	9	0.38461538461538
vector 17  tree_network.client[9]  hdistance[9]  ETV
17	26960	1	0
17	26960	2	0
17	26960	3	0.53846153846154
17	26960	4	1
17	26960	5	2
17	26960	6	0.0625
17	26960	7	0.36363636363636
17	26960	8	0.5
17	26960	9	3.4285714285714
vector 18  tree_network.client[10]  hdistance[10]  ETV
18	26960	1	0
18	26960	2	0
18	26960	3	0
18	26960	4	0.83333333333333
18	26960	5	1
18	26960	6	1.2857142857143
18	26960	7	0.90909090909091
18	26960	8	1
18	26960	9	1
vector 19  tree_network.client[11]  hdistance[11]  ETV
19	26960	1	0
19	26960	2	0
19	26960	3	0
19	26960	4	0.54166666666667
19	26960	5	1.2
19	26960	6	1.3571428571429
19	26960	7	0.0625
19	26960	8	2.5
19	26960	9	2.7777777777778
vector 20  tree_network.client[12]  hdistance[12]  ETV
20	26960	1	0
20	26960	2	0
20	26960	3	1.05
20	26960	4	0.85
20	26960	5	1
20	26960	6	0.92307692307692
20	26960	7	0.64285714285714
20	26960	8	3.4285714285714
20	26960	9	2.2857142857143
vector 21  tree_network.client[13]  hdistance[13]  ETV
21	26960	1	0
21	26960	2	0
21	26960	3	1.68
21	26960	4	0.53333333333333
21	26960	5	1.0909090909091
21	26960	6	0.23529411764706
21	26960	7	2.6666666666667
21	26960	8	1
21	26960	9	0.55555555555556
vector 22  tree_network.client[14]  hdistance[14]  ETV
22	26960	1	0.24
22	26960	2	0
22	26960	3	0
22	26960	4	1.3529411764706
22	26960	5	0.71428571428571
22	26960	6	0.71428571428571
22	26960	7	1.6428571428571
22	26960	8	1
22	26960	9	1.125
